/*--------------------------------*- C++ -*----------------------------------*\
  =========                 |
  \\      /  F ield         | OpenFOAM: The Open Source CFD Toolbox
   \\    /   O peration     | Website:  https://openfoam.org
    \\  /    A nd           | Version:  12
     \\/     M anipulation  |
\*---------------------------------------------------------------------------*/
FoamFile
{
    format      ascii;
    class       volScalarField;
    location    "0";
    object      p;
}
// * * * * * * * * * * * * * * * * * * * * * * * * * * * * * * * * * * * * * //

dimensions      [0 2 -2 0 0 0 0];

internalField   uniform 0;

boundaryField
{
    inlet
    {
        type            freestreamPressure;
        freestreamValue uniform 0;
        supersonic      false;
        value           uniform 0;
    }
    outlet
    {
        type            freestreamPressure;
        freestreamValue uniform 0;
        supersonic      false;
        value           uniform 0;
    }
    bottom
    {
        type            freestreamPressure;
        freestreamValue uniform 0;
        supersonic      false;
        value           uniform 0;
    }
    top
    {
        type            freestreamPressure;
        freestreamValue uniform 0;
        supersonic      false;
        value           uniform 0;
    }
    right
    {
        type            freestreamPressure;
        freestreamValue uniform 0;
        supersonic      false;
        value           uniform 0;
    }
    left
    {
        type            freestreamPressure;
        freestreamValue uniform 0;
        supersonic      false;
        value           uniform 0;
    }
    body
    {
        type            zeroGradient;
    }
}


// ************************************************************************* //
