FoamFile
{
	format ascii;
	class volScalarField;
	object k;
}

kInlet 0.001; //determined by k = 1.5 (U*I)^2, where I is basically 0 for standing fluid

dimensions [0 2 -2 0 0 0 0];

internalField uniform $kInlet;

boundaryField
{
	inlet
	{
		type fixedValue;
		value uniform $kInlet;
	}

	freestream
	{
		type inletOutlet;
		inletValue uniform $kInlet;
		value uniform $kInlet;
	}

	bottom
	{
		type kqRWallFunction;
		value uniform $kInlet;
	}

	body
	{
		$bottom;
	}

	center
	{
		type symmetryPlane;
	}
}
