FoamFile
{
	format ascii;
	class volScalarField;
	object nut;
}

dimensions [0 2 -1 0 0 0 0];

internalField uniform 0;

boundaryField
{
	inlet
	{
		type calculated;
		value uniform 0;
	}

	freestream
	{
		type calculated;
		value uniform 0;
	}

	body
	{
		type nutLowReWallFunction;
		value uniform 0;
	}

	center
	{
		type symmetryPlane;
	}
}
