FoamFile
{
	format ascii;
	class volScalarField;
	object nuTilda;
}

dimensions      [0 2 -1 0 0 0 0];
internalField   uniform 1e-5;
boundaryField

{
    inlet  { type fixedValue; value uniform 1e-5; }
    outlet { type zeroGradient; }
    walls  { type fixedValue; value uniform 0; }
}
